
                                         ***  PROGRAM SYSTEM MOLPRO  ***
                         Copyright, University College Cardiff Consultants Limited, 2004

                                    Version 2006.1 linked 21 Dec 2006 16:33:33


 **********************************************************************************************************************************
 LABEL *   FHeO-                                                                         
 **********************************************************************************************************************************

 Patch level:      52
 **********************************************************************************************************************************

 SETTING R1             =         1.63700000  ANGSTROM                        
 SETTING R2             =         1.05400000  ANGSTROM                        

 Variable memory set to   80000000 words,  buffer space   230000 words
 
 SETTING BASIS          =    CC-PVTZ


 Recomputing integrals since basis changed


 Using spherical harmonics

 TAPE START
      1      S,  1,cc-pVTZ,                                                     
                                                                                
                                           
      2      C,                                                                 
                                                                                
                                           
      3      P,  1,cc-pVTZ,                                                     
                                                                                
                                           
      4      C,                                                                 
                                                                                
                                           
      5      D,  1,cc-pVTZ,                                                     
                                                                                
                                           
      6      C,                                                                 
                                                                                
                                           
      7      S,  2,cc-pVTZ,                                                     
                                                                                
                                           
      8      C,                                                                 
                                                                                
                                           
      9      P,  2,cc-pVTZ,                                                     
                                                                                
                                           
     10      C,                                                                 
                                                                                
                                           
     11      D,  2,cc-pVTZ,                                                     
                                                                                
                                           
     12      C,                                                                 
                                                                                
                                           
     13      F,  2,cc-pVTZ,                                                     
                                                                                
                                           
     14      C,                                                                 
                                                                                
                                           
     15      S,  3,cc-pVTZ,                                                     
                                                                                
                                           
     16      C,                                                                 
                                                                                
                                           
     17      P,  3,cc-pVTZ,                                                     
                                                                                
                                           
     18      C,                                                                 
                                                                                
                                           
     19      D,  3,cc-pVTZ,                                                     
                                                                                
                                           
     20      C,                                                                 
                                                                                
                                           
     21      F,  3,cc-pVTZ,                                                     
                                                                                
                                           
     22      C,                                                                 
                                                                                
                                           
     23      -,                                                                 
                                                                                
                                           
 TAPE END
 Library entry HE     S cc-pVTZ              selected for orbital group  1
 Library entry HE     P cc-pVTZ              selected for orbital group  1
 Library entry HE     D cc-pVTZ              selected for orbital group  1
 Library entry F      S cc-pVTZ              selected for orbital group  2
 Library entry F      P cc-pVTZ              selected for orbital group  2
 Library entry F      D cc-pVTZ              selected for orbital group  2
 Library entry F      F cc-pVTZ              selected for orbital group  2
 Library entry O      S cc-pVTZ              selected for orbital group  3
 Library entry O      P cc-pVTZ              selected for orbital group  3
 Library entry O      D cc-pVTZ              selected for orbital group  3
 Library entry O      F cc-pVTZ              selected for orbital group  3

1PROGRAM * SEWARD (Integral evaluation for generally contracted gaussian basis sets)     Author: Roland Lindh, 1990

 Geometry written to block  1 of record 700

 Orientation using atomic masses  
 Molecule type: Linear
 Symmetry elements: X,Y
 Rotational constants:       7.9602140      7.9602140      0.0000000 GHz

 Point group  C2v 



 ATOMIC COORDINATES

 NR  ATOM    CHARGE       X              Y              Z

   1  HE      2.00    0.000000000    0.000000000   -0.689840644
   2  F       9.00    0.000000000    0.000000000    2.403640799
   3  O       8.00    0.000000000    0.000000000   -2.681611836

 Bond lengths in Bohr (Angstrom)

 1-2  3.093481443  1-3  1.991771192
     (1.637000000)     (1.054000000)

 Bond angles

  2-1-3  179.99999915


 BASIS DATA

   Nr Sym  Nuc  Type         Exponents   Contraction coefficients

   1.1 A1    1  1s          234.000000     0.002587    0.000000    0.000000
   2.1 A1                    35.160000     0.019533    0.000000    0.000000
   3.1 A1                     7.989000     0.090998    0.000000    0.000000
                              2.212000     0.272050    0.000000    0.000000
                              0.666900     0.478065    1.000000    0.000000
                              0.208900     0.307737    0.000000    1.000000
   4.1 A1    1  2pz           3.044000     1.000000
   5.1 A1    1  2pz           0.758000     1.000000
   6.1 A1    1  3d0           1.965000     1.000000
   7.1 A1    1  3d2+          1.965000     1.000000
   8.1 A1    2  1s        19500.000000     0.000507   -0.000117    0.000000    0.000000
   9.1 A1                  2923.000000     0.003923   -0.000912    0.000000    0.000000
  10.1 A1                   664.500000     0.020200   -0.004717    0.000000    0.000000
  11.1 A1                   187.500000     0.079010   -0.019086    0.000000    0.000000
                             60.620000     0.230439   -0.059655    0.000000    0.000000
                             21.420000     0.432872   -0.140010    0.000000    0.000000
                              7.950000     0.349964   -0.176782    0.000000    0.000000
                              2.257000     0.043233    0.171625    1.000000    0.000000
                              0.881500    -0.007892    0.605043    0.000000    0.000000
                              0.304100     0.002384    0.369512    0.000000    1.000000
  12.1 A1    2  2pz          43.880000     0.016665    0.000000    0.000000
  13.1 A1                     9.926000     0.104472    0.000000    0.000000
  14.1 A1                     2.930000     0.317260    0.000000    0.000000
                              0.913200     0.487343    1.000000    0.000000
                              0.267200     0.334604    0.000000    1.000000
  15.1 A1    2  3d0           3.107000     1.000000
  16.1 A1    2  3d2+          3.107000     1.000000
  17.1 A1    2  3d0           0.855000     1.000000
  18.1 A1    2  3d2+          0.855000     1.000000
  19.1 A1    2  4f0           1.917000     1.000000
  20.1 A1    2  4f2+          1.917000     1.000000
  21.1 A1    3  1s        15330.000000     0.000508   -0.000115    0.000000    0.000000
  22.1 A1                  2299.000000     0.003929   -0.000895    0.000000    0.000000
  23.1 A1                   522.400000     0.020243   -0.004636    0.000000    0.000000
  24.1 A1                   147.300000     0.079181   -0.018724    0.000000    0.000000
                             47.550000     0.230687   -0.058463    0.000000    0.000000
                             16.760000     0.433118   -0.136463    0.000000    0.000000
                              6.207000     0.350260   -0.175740    0.000000    0.000000
                              1.752000     0.042728    0.160934    1.000000    0.000000
                              0.688200    -0.008154    0.603418    0.000000    0.000000
                              0.238400     0.002381    0.378765    0.000000    1.000000
  25.1 A1    3  2pz          34.460000     0.015928    0.000000    0.000000
  26.1 A1                     7.749000     0.099740    0.000000    0.000000
  27.1 A1                     2.280000     0.310492    0.000000    0.000000
                              0.715600     0.491026    1.000000    0.000000
                              0.214000     0.336337    0.000000    1.000000
  28.1 A1    3  3d0           2.314000     1.000000
  29.1 A1    3  3d2+          2.314000     1.000000
  30.1 A1    3  3d0           0.645000     1.000000
  31.1 A1    3  3d2+          0.645000     1.000000
  32.1 A1    3  4f0           1.428000     1.000000
  33.1 A1    3  4f2+          1.428000     1.000000
   1.2 B1    1  2px           3.044000     1.000000
   2.2 B1    1  2px           0.758000     1.000000
   3.2 B1    1  3d1+          1.965000     1.000000
   4.2 B1    2  2px          43.880000     0.016665    0.000000    0.000000
   5.2 B1                     9.926000     0.104472    0.000000    0.000000
   6.2 B1                     2.930000     0.317260    0.000000    0.000000
                              0.913200     0.487343    1.000000    0.000000
                              0.267200     0.334604    0.000000    1.000000
   7.2 B1    2  3d1+          3.107000     1.000000
   8.2 B1    2  3d1+          0.855000     1.000000
   9.2 B1    2  4f1+          1.917000     1.000000
  10.2 B1    2  4f3+          1.917000     1.000000
  11.2 B1    3  2px          34.460000     0.015928    0.000000    0.000000
  12.2 B1                     7.749000     0.099740    0.000000    0.000000
  13.2 B1                     2.280000     0.310492    0.000000    0.000000
                              0.715600     0.491026    1.000000    0.000000
                              0.214000     0.336337    0.000000    1.000000
  14.2 B1    3  3d1+          2.314000     1.000000
  15.2 B1    3  3d1+          0.645000     1.000000
  16.2 B1    3  4f1+          1.428000     1.000000
  17.2 B1    3  4f3+          1.428000     1.000000
   1.3 B2    1  2py           3.044000     1.000000
   2.3 B2    1  2py           0.758000     1.000000
   3.3 B2    1  3d1-          1.965000     1.000000
   4.3 B2    2  2py          43.880000     0.016665    0.000000    0.000000
   5.3 B2                     9.926000     0.104472    0.000000    0.000000
   6.3 B2                     2.930000     0.317260    0.000000    0.000000
                              0.913200     0.487343    1.000000    0.000000
                              0.267200     0.334604    0.000000    1.000000
   7.3 B2    2  3d1-          3.107000     1.000000
   8.3 B2    2  3d1-          0.855000     1.000000
   9.3 B2    2  4f1-          1.917000     1.000000
  10.3 B2    2  4f3-          1.917000     1.000000
  11.3 B2    3  2py          34.460000     0.015928    0.000000    0.000000
  12.3 B2                     7.749000     0.099740    0.000000    0.000000
  13.3 B2                     2.280000     0.310492    0.000000    0.000000
                              0.715600     0.491026    1.000000    0.000000
                              0.214000     0.336337    0.000000    1.000000
  14.3 B2    3  3d1-          2.314000     1.000000
  15.3 B2    3  3d1-          0.645000     1.000000
  16.3 B2    3  4f1-          1.428000     1.000000
  17.3 B2    3  4f3-          1.428000     1.000000
   1.4 A2    1  3d2-          1.965000     1.000000
   2.4 A2    2  3d2-          3.107000     1.000000
   3.4 A2    2  3d2-          0.855000     1.000000
   4.4 A2    2  4f2-          1.917000     1.000000
   5.4 A2    3  3d2-          2.314000     1.000000
   6.4 A2    3  3d2-          0.645000     1.000000
   7.4 A2    3  4f2-          1.428000     1.000000
 Basis function codes:
   1 1s     1 1s     1 1s     1 2pz    1 2pz    1 3d0    1 3d2+   2 1s     2 1s     2 1s   
   2 1s     2 2pz    2 2pz    2 2pz    2 3d0    2 3d2+   2 3d0    2 3d2+   2 4f0    2 4f2+ 
   3 1s     3 1s     3 1s     3 1s     3 2pz    3 2pz    3 2pz    3 3d0    3 3d2+   3 3d0  
   3 3d2+   3 4f0    3 4f2+   1 2px    1 2px    1 3d1+   2 2px    2 2px    2 2px    2 3d1+ 
   2 3d1+   2 4f1+   2 4f3+   3 2px    3 2px    3 2px    3 3d1+   3 3d1+   3 4f1+   3 4f3+ 
   1 2py    1 2py    1 3d1-   2 2py    2 2py    2 2py    2 3d1-   2 3d1-   2 4f1-   2 4f3- 
   3 2py    3 2py    3 2py    3 3d1-   3 3d1-   3 4f1-   3 4f3-   1 3d2-   2 3d2-   2 3d2- 
   2 4f2-   3 3d2-   3 3d2-   3 4f2- 

 NUCLEAR CHARGE:                   19
 NUMBER OF PRIMITIVE AOS:         112
 NUMBER OF SYMMETRY AOS:          101
 NUMBER OF CONTRACTIONS:           74   (  33A1  +  17B1  +  17B2  +   7A2  )
 NUMBER OF CORE ORBITALS:           2   (   2A1  +   0B1  +   0B2  +   0A2  )
 NUMBER OF VALENCE ORBITALS:        9   (   5A1  +   2B1  +   2B2  +   0A2  )


 NUCLEAR REPULSION ENERGY   28.01032674


 Number of groups:                 14
 Number of shells:                 45
 Number of primitives:            112
 Number of basis functions:        74

 GROUP   NPRIMS  NCONTS   NFUNC  IOFFS   IOFFC    IADR    MINL    MAXL    TYPE   CENTRE   STADR   EQAT
    1       6       3       3       0       0       1       0       0       0       1       1       1
    2       1       1       3       6       3      19       1       1       0       1       5       1
    3       1       1       3       7       6      20       1       1       0       1       5       1
    4       1       1       5       8       9      21       2       2       0       1      19       1
    5      10       4       4       9      14      22       0       0       0       2       1       1
    6       5       3       9      19      18      62       1       1       0       2       5       1
    7       1       1       5      24      27      77       2       2       0       2      19       1
    8       1       1       5      25      32      78       2       2       0       2      19       1
    9       1       1       7      26      37      79       3       3       0       2      56       1
   10      10       4       4      27      44      80       0       0       0       3       1       1
   11       5       3       9      37      48     120       1       1       0       3       5       1
   12       1       1       5      42      57     135       2       2       0       3      19       1
   13       1       1       5      43      62     136       2       2       0       3      19       1
   14       1       1       7      44      67     137       3       3       0       3      56       1

       Exponents     Contraction Coefficients
 Group  1:                       
      234.000000     0.00258700  0.00000000  0.00000000
       35.160000     0.01953300  0.00000000  0.00000000
        7.989000     0.09099801  0.00000000  0.00000000
        2.212000     0.27205003  0.00000000  0.00000000
        0.666900     0.47806505  1.00000000  0.00000000
        0.208900     0.30773703  0.00000000  1.00000000
 Group  2:                       
        3.044000     1.00000000
 Group  3:                       
        0.758000     1.00000000
 Group  4:                       
        1.965000     1.00000000
 Group  5:                       
    19500.000000     0.00050700 -0.00011700  0.00000000  0.00000000
     2923.000000     0.00392300 -0.00091200  0.00000000  0.00000000
      664.500000     0.02020001 -0.00471700  0.00000000  0.00000000
      187.500000     0.07901003 -0.01908599  0.00000000  0.00000000
       60.620000     0.23043908 -0.05965498  0.00000000  0.00000000
       21.420000     0.43287214 -0.14000994  0.00000000  0.00000000
        7.950000     0.34996412 -0.17678193  0.00000000  0.00000000
        2.257000     0.04323301  0.17162493  1.00000000  0.00000000
        0.881500    -0.00789200  0.60504276  0.00000000  0.00000000
        0.304100     0.00238400  0.36951185  0.00000000  1.00000000
 Group  6:                       
       43.880000     0.01666500  0.00000000  0.00000000
        9.926000     0.10447202  0.00000000  0.00000000
        2.930000     0.31726005  0.00000000  0.00000000
        0.913200     0.48734307  1.00000000  0.00000000
        0.267200     0.33460405  0.00000000  1.00000000
 Group  7:                       
        3.107000     1.00000000
 Group  8:                       
        0.855000     1.00000000
 Group  9:                       
        1.917000     1.00000000
 Group 10:                       
    15330.000000     0.00050800 -0.00011500  0.00000000  0.00000000
     2299.000000     0.00392900 -0.00089500  0.00000000  0.00000000
      522.400000     0.02024299 -0.00463600  0.00000000  0.00000000
      147.300000     0.07918095 -0.01872401  0.00000000  0.00000000
       47.550000     0.23068685 -0.05846303  0.00000000  0.00000000
       16.760000     0.43311772 -0.13646307  0.00000000  0.00000000
        6.207000     0.35025977 -0.17574009  0.00000000  0.00000000
        1.752000     0.04272797  0.16093408  1.00000000  0.00000000
        0.688200    -0.00815399  0.60341832  0.00000000  0.00000000
        0.238400     0.00238100  0.37876520  0.00000000  1.00000000
 Group 11:                       
       34.460000     0.01592799  0.00000000  0.00000000
        7.749000     0.09973994  0.00000000  0.00000000
        2.280000     0.31049182  0.00000000  0.00000000
        0.715600     0.49102571  1.00000000  0.00000000
        0.214000     0.33633680  0.00000000  1.00000000
 Group 12:                       
        2.314000     1.00000000
 Group 13:                       
        0.645000     1.00000000
 Group 14:                       
        1.428000     1.00000000
 
 Symmetry transformation matrices

 Reduction set 1
 Symmetries of SAOs:     1
    1                  1.0000

 Reduction set 2
 Symmetries of SAOs:     2         3         1
    1                  1.0000    0.0000    0.0000
    2                  0.0000    1.0000    0.0000
    3                  0.0000    0.0000    1.0000

 Reduction set 3
 Symmetries of SAOs:     1         4         2         1         3
    1                 -0.2887    0.0000    0.0000    0.5000    0.0000
    2                  0.0000    1.0000    0.0000    0.0000    0.0000
    3                  0.0000    0.0000    1.0000    0.0000    0.0000
    4                 -0.2887    0.0000    0.0000   -0.5000    0.0000
    5                  0.0000    0.0000    0.0000    0.0000    1.0000
    6                  0.5774    0.0000    0.0000    0.0000    0.0000

 Reduction set 4
 Symmetries of SAOs:     2         3         1         2         4         3         1
    1                 -0.1581    0.0000    0.0000    0.2041    0.0000    0.0000    0.0000
    2                  0.0000   -0.1581    0.0000    0.0000    0.0000    0.6124    0.0000
    3                  0.0000    0.0000   -0.3873    0.0000    0.0000    0.0000    0.5000
    4                 -0.1581    0.0000    0.0000   -0.6124    0.0000    0.0000    0.0000
    5                  0.0000    0.0000    0.0000    0.0000    1.0000    0.0000    0.0000
    6                  0.6325    0.0000    0.0000    0.0000    0.0000    0.0000    0.0000
    7                  0.0000   -0.1581    0.0000    0.0000    0.0000   -0.2041    0.0000
    8                  0.0000    0.0000   -0.3873    0.0000    0.0000    0.0000   -0.5000
    9                  0.0000    0.6325    0.0000    0.0000    0.0000    0.0000    0.0000
   10                  0.0000    0.0000    0.2582    0.0000    0.0000    0.0000    0.0000

 Symmetry offsets for each group

    1        0    0    0    0
    2        3    0    0    0
    3        4    1    1    0
    4        5    2    2    0
    5        7    3    3    1
    6       11    3    3    1
    7       14    6    6    1
    8       16    7    7    2
    9       18    8    8    3
   10       20   10   10    4
   11       24   10   10    4
   12       27   13   13    4
   13       29   14   14    5
   14       31   15   15    6

 Number of basis functions in each symmetry:  33  17  17   7
 
 VLIST:
      0.0000      0.0000     -0.6898      2.0000
      0.0000      0.0000      2.4036      9.0000
      0.0000      0.0000     -2.6816      8.0000
 ETA, ITYPF:
      0.0000      0.0000     -0.6898    234.0000       1
      0.0000      0.0000     -0.6898     35.1600       1
      0.0000      0.0000     -0.6898      7.9890       1
      0.0000      0.0000     -0.6898      2.2120       1
      0.0000      0.0000     -0.6898      0.6669       1
      0.0000      0.0000     -0.6898      0.2089       1
      0.0000      0.0000     -0.6898      3.0440       2
      0.0000      0.0000     -0.6898      3.0440       3
      0.0000      0.0000     -0.6898      3.0440       4
      0.0000      0.0000     -0.6898      0.7580       2
      0.0000      0.0000     -0.6898      0.7580       3
      0.0000      0.0000     -0.6898      0.7580       4
      0.0000      0.0000     -0.6898      1.9650       5
      0.0000      0.0000     -0.6898      1.9650       6
      0.0000      0.0000     -0.6898      1.9650       7
      0.0000      0.0000     -0.6898      1.9650       8
      0.0000      0.0000     -0.6898      1.9650       9
      0.0000      0.0000     -0.6898      1.9650      10
      0.0000      0.0000      2.4036  19500.0000       1
      0.0000      0.0000      2.4036   2923.0000       1
      0.0000      0.0000      2.4036    664.5000       1
      0.0000      0.0000      2.4036    187.5000       1
      0.0000      0.0000      2.4036     60.6200       1
      0.0000      0.0000      2.4036     21.4200       1
      0.0000      0.0000      2.4036      7.9500       1
      0.0000      0.0000      2.4036      2.2570       1
      0.0000      0.0000      2.4036      0.8815       1
      0.0000      0.0000      2.4036      0.3041       1
      0.0000      0.0000      2.4036     43.8800       2
      0.0000      0.0000      2.4036      9.9260       2
      0.0000      0.0000      2.4036      2.9300       2
      0.0000      0.0000      2.4036      0.9132       2
      0.0000      0.0000      2.4036      0.2672       2
      0.0000      0.0000      2.4036     43.8800       3
      0.0000      0.0000      2.4036      9.9260       3
      0.0000      0.0000      2.4036      2.9300       3
      0.0000      0.0000      2.4036      0.9132       3
      0.0000      0.0000      2.4036      0.2672       3
      0.0000      0.0000      2.4036     43.8800       4
      0.0000      0.0000      2.4036      9.9260       4
      0.0000      0.0000      2.4036      2.9300       4
      0.0000      0.0000      2.4036      0.9132       4
      0.0000      0.0000      2.4036      0.2672       4
      0.0000      0.0000      2.4036      3.1070       5
      0.0000      0.0000      2.4036      3.1070       6
      0.0000      0.0000      2.4036      3.1070       7
      0.0000      0.0000      2.4036      3.1070       8
      0.0000      0.0000      2.4036      3.1070       9
      0.0000      0.0000      2.4036      3.1070      10
      0.0000      0.0000      2.4036      0.8550       5
      0.0000      0.0000      2.4036      0.8550       6
      0.0000      0.0000      2.4036      0.8550       7
      0.0000      0.0000      2.4036      0.8550       8
      0.0000      0.0000      2.4036      0.8550       9
      0.0000      0.0000      2.4036      0.8550      10
      0.0000      0.0000      2.4036      1.9170      11
      0.0000      0.0000      2.4036      1.9170      12
      0.0000      0.0000      2.4036      1.9170      13
      0.0000      0.0000      2.4036      1.9170      14
      0.0000      0.0000      2.4036      1.9170      15
      0.0000      0.0000      2.4036      1.9170      16
      0.0000      0.0000      2.4036      1.9170      17
      0.0000      0.0000      2.4036      1.9170      18
      0.0000      0.0000      2.4036      1.9170      19
      0.0000      0.0000      2.4036      1.9170      20
      0.0000      0.0000     -2.6816  15330.0000       1
      0.0000      0.0000     -2.6816   2299.0000       1
      0.0000      0.0000     -2.6816    522.4000       1
      0.0000      0.0000     -2.6816    147.3000       1
      0.0000      0.0000     -2.6816     47.5500       1
      0.0000      0.0000     -2.6816     16.7600       1
      0.0000      0.0000     -2.6816      6.2070       1
      0.0000      0.0000     -2.6816      1.7520       1
      0.0000      0.0000     -2.6816      0.6882       1
      0.0000      0.0000     -2.6816      0.2384       1
      0.0000      0.0000     -2.6816     34.4600       2
      0.0000      0.0000     -2.6816      7.7490       2
      0.0000      0.0000     -2.6816      2.2800       2
      0.0000      0.0000     -2.6816      0.7156       2
      0.0000      0.0000     -2.6816      0.2140       2
      0.0000      0.0000     -2.6816     34.4600       3
      0.0000      0.0000     -2.6816      7.7490       3
      0.0000      0.0000     -2.6816      2.2800       3
      0.0000      0.0000     -2.6816      0.7156       3
      0.0000      0.0000     -2.6816      0.2140       3
      0.0000      0.0000     -2.6816     34.4600       4
      0.0000      0.0000     -2.6816      7.7490       4
      0.0000      0.0000     -2.6816      2.2800       4
      0.0000      0.0000     -2.6816      0.7156       4
      0.0000      0.0000     -2.6816      0.2140       4
      0.0000      0.0000     -2.6816      2.3140       5
      0.0000      0.0000     -2.6816      2.3140       6
      0.0000      0.0000     -2.6816      2.3140       7
      0.0000      0.0000     -2.6816      2.3140       8
      0.0000      0.0000     -2.6816      2.3140       9
      0.0000      0.0000     -2.6816      2.3140      10
      0.0000      0.0000     -2.6816      0.6450       5
      0.0000      0.0000     -2.6816      0.6450       6
      0.0000      0.0000     -2.6816      0.6450       7
      0.0000      0.0000     -2.6816      0.6450       8
      0.0000      0.0000     -2.6816      0.6450       9
      0.0000      0.0000     -2.6816      0.6450      10
      0.0000      0.0000     -2.6816      1.4280      11
      0.0000      0.0000     -2.6816      1.4280      12
      0.0000      0.0000     -2.6816      1.4280      13
      0.0000      0.0000     -2.6816      1.4280      14
      0.0000      0.0000     -2.6816      1.4280      15
      0.0000      0.0000     -2.6816      1.4280      16
      0.0000      0.0000     -2.6816      1.4280      17
      0.0000      0.0000     -2.6816      1.4280      18
      0.0000      0.0000     -2.6816      1.4280      19
      0.0000      0.0000     -2.6816      1.4280      20
 CONTRACTION:
       0.002587       0.019533       0.090998       0.272050       0.478065       0.307737
       0.000000       0.000000       0.000000       0.000000       1.000000       0.000000
       0.000000       0.000000       0.000000       0.000000       0.000000       1.000000
       1.000000
       1.000000
       1.000000
       1.000000
       1.000000
       1.000000
       1.000000
       1.000000
       1.000000
       1.000000
       1.000000
       1.000000
       0.000507       0.003923       0.020200       0.079010       0.230439       0.432872       0.349964       0.043233
      -0.007892       0.002384
      -0.000117      -0.000912      -0.004717      -0.019086      -0.059655      -0.140010      -0.176782       0.171625
       0.605043       0.369512
       0.000000       0.000000       0.000000       0.000000       0.000000       0.000000       0.000000       1.000000
       0.000000       0.000000
       0.000000       0.000000       0.000000       0.000000       0.000000       0.000000       0.000000       0.000000
       0.000000       1.000000
       0.016665       0.104472       0.317260       0.487343       0.334604
       0.000000       0.000000       0.000000       1.000000       0.000000
       0.000000       0.000000       0.000000       0.000000       1.000000
       0.016665       0.104472       0.317260       0.487343       0.334604
       0.000000       0.000000       0.000000       1.000000       0.000000
       0.000000       0.000000       0.000000       0.000000       1.000000
       0.016665       0.104472       0.317260       0.487343       0.334604
       0.000000       0.000000       0.000000       1.000000       0.000000
       0.000000       0.000000       0.000000       0.000000       1.000000
       1.000000
       1.000000
       1.000000
       1.000000
       1.000000
       1.000000
       1.000000
       1.000000
       1.000000
       1.000000
       1.000000
       1.000000
       1.000000
       1.000000
       1.000000
       1.000000
       1.000000
       1.000000
       1.000000
       1.000000
       1.000000
       1.000000
       0.000508       0.003929       0.020243       0.079181       0.230687       0.433118       0.350260       0.042728
      -0.008154       0.002381
      -0.000115      -0.000895      -0.004636      -0.018724      -0.058463      -0.136463      -0.175740       0.160934
       0.603418       0.378765
       0.000000       0.000000       0.000000       0.000000       0.000000       0.000000       0.000000       1.000000
       0.000000       0.000000
       0.000000       0.000000       0.000000       0.000000       0.000000       0.000000       0.000000       0.000000
       0.000000       1.000000
       0.015928       0.099740       0.310492       0.491026       0.336337
       0.000000       0.000000       0.000000       1.000000       0.000000
       0.000000       0.000000       0.000000       0.000000       1.000000
       0.015928       0.099740       0.310492       0.491026       0.336337
       0.000000       0.000000       0.000000       1.000000       0.000000
       0.000000       0.000000       0.000000       0.000000       1.000000
       0.015928       0.099740       0.310492       0.491026       0.336337
       0.000000       0.000000       0.000000       1.000000       0.000000
       0.000000       0.000000       0.000000       0.000000       1.000000
       1.000000
       1.000000
       1.000000
       1.000000
       1.000000
       1.000000
       1.000000
       1.000000
       1.000000
       1.000000
       1.000000
       1.000000
       1.000000
       1.000000
       1.000000
       1.000000
       1.000000
       1.000000
       1.000000
       1.000000
       1.000000
       1.000000
 AO-SO TRANSFORMATION:
        1     1.00000      87     1.00000     173     1.00000    2809     1.00000    4255     1.00000     261     1.00000
    2897     1.00000    4343     1.00000     349     1.00000     435    -0.50000     436    -0.50000     437     1.00000
    5708     1.00000    2989     1.00000     520     0.86603     521    -0.86603    4435     1.00000     611     1.00000
     697     1.00000     783     1.00000     869     1.00000    3080     1.00000    4528     1.00000     961     1.00000
    3166     1.00000    4614     1.00000    1047     1.00000    3252     1.00000    4700     1.00000    1133     1.00000
    1219    -0.50000    1220    -0.50000    1221     1.00000    5812     1.00000    3348     1.00000    1304     0.86603
    1305    -0.86603    4794     1.00000    1395    -0.50000    1396    -0.50000    1397     1.00000    5903     1.00000
    3439     1.00000    1480     0.86603    1481    -0.86603    4885     1.00000    3526    -0.61237    3531    -0.27386
    3533     1.09545    4972    -0.61237    4974    -0.27386    4979     1.09545    1573     1.00000    1575    -0.67082
    1577    -0.67082    3611     0.79057    3616    -1.06066    6000     1.00000    5057    -0.79057    5059     1.06066
    1660     0.86603    1662    -0.86603    1751     1.00000    1837     1.00000    1923     1.00000    2009     1.00000
    3710     1.00000    5158     1.00000    2101     1.00000    3796     1.00000    5244     1.00000    2187     1.00000
    3882     1.00000    5330     1.00000    2273     1.00000    2359    -0.50000    2360    -0.50000    2361     1.00000
    6102     1.00000    3978     1.00000    2444     0.86603    2445    -0.86603    5424     1.00000    2535    -0.50000
    2536    -0.50000    2537     1.00000    6193     1.00000    4069     1.00000    2620     0.86603    2621    -0.86603
    5515     1.00000    4156    -0.61237    4161    -0.27386    4163     1.09545    5602    -0.61237    5604    -0.27386
    5609     1.09545    2713     1.00000    2715    -0.67082    2717    -0.67082    4241     0.79057    4246    -1.06066
    6290     1.00000    5687    -0.79057    5689     1.06066    2800     0.86603    2802    -0.86603
 EXTRA SYMMETRY OF AOS IN SYMMETRY 1:   1 1 1 1 1 1 2 1 1 1   1 1 1 1 1 2 1 2 1 2   1 1 1 1 1 1 1 1 2 1   2 1 2
 EXTRA SYMMETRY OF AOS IN SYMMETRY 2:   1 1 1 1 1 1 1 1 1 2   1 1 1 1 1 1 2
 EXTRA SYMMETRY OF AOS IN SYMMETRY 3:   1 1 1 1 1 1 1 1 1 2   1 1 1 1 1 1 2

 Eigenvalues of metric

         1 0.699E-02 0.836E-02 0.153E-01 0.330E-01 0.450E-01 0.528E-01 0.105E+00 0.206E+00
         2 0.489E-01 0.534E-01 0.216E+00 0.377E+00 0.406E+00 0.487E+00 0.525E+00 0.679E+00
         3 0.489E-01 0.534E-01 0.216E+00 0.377E+00 0.406E+00 0.487E+00 0.525E+00 0.679E+00
         4 0.483E+00 0.495E+00 0.900E+00 0.100E+01 0.110E+01 0.151E+01 0.152E+01
 

 Contracted 2-electron integrals neglected if value below      1.0D-11

 ITYPAO
   1- 20     1     1     1     2     3     4     2     3     4     5     6     7     8     9    10     1     1     1     1     2
  21- 40     2     2     3     3     3     4     4     4     5     6     7     8     9    10     5     6     7     8     9    10
  41- 60    11    12    13    14    15    16    17    18    19    20     1     1     1     1     2     2     2     3     3     3
  61- 80     4     4     4     5     6     7     8     9    10     5     6     7     8     9    10    11    12    13    14    15
  81- 85    16    17    18    19    20
 Basis set:  ORBITAL
 Basis size:   74
 Attributes:
 Sphericals:   T
=======================================
centre l       exponent    contractions
=======================================
Group    1 Size    3 Offset    0
   1   s     234.000000    0.110311  0.000000  0.000000
   1   s      35.160000    0.201009  0.000000  0.000000
   1   s       7.989000    0.308185  0.000000  0.000000
   1   s       2.212000    0.351680  0.000000  0.000000
   1   s       0.666900    0.251445  0.525964  0.000000
   1   s       0.208900    0.067771  0.000000  0.220224
 
Group    2 Size    3 Offset    3
   1   p       3.044000    5.731204
 
Group    3 Size    3 Offset    6
   1   p       0.758000    1.008153
 
Group    4 Size    5 Offset    9
   1   d       1.965000    5.367770
 
Group    5 Size    4 Offset   14
   2   s   19500.000000    0.596272 -0.137601  0.000000  0.000000
   2   s    2923.000000    1.111476 -0.258390  0.000000  0.000000
   2   s     664.500000    1.884225 -0.439994  0.000000  0.000000
   2   s     187.500000    2.853273 -0.689248  0.000000  0.000000
   2   s      60.620000    3.568027 -0.923674  0.000000  0.000000
   2   s      21.420000    3.071739 -0.993536  0.000000  0.000000
   2   s       7.950000    1.180889 -0.596518  0.000000  0.000000
   2   s       2.257000    0.056738  0.225237  1.312377  0.000000
   2   s       0.881500   -0.005117  0.392295  0.000000  0.000000
   2   s       0.304100    0.000696  0.107845  0.000000  0.291859
 
Group    6 Size    9 Offset   18
   2   p      43.880000    2.682741  0.000000  0.000000
   2   p       9.926000    2.623662  0.000000  0.000000
   2   p       2.930000    1.733564  0.000000  0.000000
   2   p       0.913200    0.620129  1.272470  0.000000
   2   p       0.267200    0.091626  0.000000  0.273833
 
Group    7 Size    5 Offset   27
   2   d       3.107000   11.967589
 
Group    8 Size    5 Offset   32
   2   d       0.855000    1.251267
 
Group    9 Size    7 Offset   37
   2   f       1.917000    6.365818
 
Group   10 Size    4 Offset   44
   3   s   15330.000000    0.498804 -0.112918  0.000000  0.000000
   3   s    2299.000000    0.929707 -0.211781  0.000000  0.000000
   3   s     522.400000    1.576475 -0.361041  0.000000  0.000000
   3   s     147.300000    2.386068 -0.564236  0.000000  0.000000
   3   s      47.550000    2.977116 -0.754491  0.000000  0.000000
   3   s      16.760000    2.556946 -0.805621  0.000000  0.000000
   3   s       6.207000    0.981661 -0.492541  0.000000  0.000000
   3   s       1.752000    0.046374  0.174666  1.085327  0.000000
   3   s       0.688200   -0.004391  0.324949  0.000000  0.000000
   3   s       0.238400    0.000579  0.092100  0.000000  0.243159
 
Group   11 Size    9 Offset   48
   3   p      34.460000    1.895593  0.000000  0.000000
   3   p       7.749000    1.838088  0.000000  0.000000
   3   p       2.280000    1.239963  0.000000  0.000000
   3   p       0.715600    0.460662  0.938162  0.000000
   3   p       0.214000    0.069780  0.000000  0.207471
 
Group   12 Size    5 Offset   57
   3   d       2.314000    7.145709
 
Group   13 Size    5 Offset   62
   3   d       0.645000    0.764080
 
Group   14 Size    7 Offset   67
   3   f       1.428000    3.281655
=======================================
 

 ITYPAO
   1- 20     1     1     1     2     3     4     2     3     4     5     6     7     8     9    10     1     1     1     1     2
  21- 40     2     2     3     3     3     4     4     4     5     6     7     8     9    10     5     6     7     8     9    10
  41- 60    11    12    13    14    15    16    17    18    19    20     1     1     1     1     2     2     2     3     3     3
  61- 80     4     4     4     5     6     7     8     9    10     5     6     7     8     9    10    11    12    13    14    15
  81- 85    16    17    18    19    20
 Basis set:  ORBITAL
 Basis size:   74
 Attributes:
 Sphericals:   T
=======================================
centre l       exponent    contractions
=======================================
Group    1 Size    3 Offset    0
   1   s     234.000000    0.110311  0.000000  0.000000
   1   s      35.160000    0.201009  0.000000  0.000000
   1   s       7.989000    0.308185  0.000000  0.000000
   1   s       2.212000    0.351680  0.000000  0.000000
   1   s       0.666900    0.251445  0.525964  0.000000
   1   s       0.208900    0.067771  0.000000  0.220224
 
Group    2 Size    3 Offset    3
   1   p       3.044000    5.731204
 
Group    3 Size    3 Offset    6
   1   p       0.758000    1.008153
 
Group    4 Size    5 Offset    9
   1   d       1.965000    5.367770
 
Group    5 Size    4 Offset   14
   2   s   19500.000000    0.596272 -0.137601  0.000000  0.000000
   2   s    2923.000000    1.111476 -0.258390  0.000000  0.000000
   2   s     664.500000    1.884225 -0.439994  0.000000  0.000000
   2   s     187.500000    2.853273 -0.689248  0.000000  0.000000
   2   s      60.620000    3.568027 -0.923674  0.000000  0.000000
   2   s      21.420000    3.071739 -0.993536  0.000000  0.000000
   2   s       7.950000    1.180889 -0.596518  0.000000  0.000000
   2   s       2.257000    0.056738  0.225237  1.312377  0.000000
   2   s       0.881500   -0.005117  0.392295  0.000000  0.000000
   2   s       0.304100    0.000696  0.107845  0.000000  0.291859
 
Group    6 Size    9 Offset   18
   2   p      43.880000    2.682741  0.000000  0.000000
   2   p       9.926000    2.623662  0.000000  0.000000
   2   p       2.930000    1.733564  0.000000  0.000000
   2   p       0.913200    0.620129  1.272470  0.000000
   2   p       0.267200    0.091626  0.000000  0.273833
 
Group    7 Size    5 Offset   27
   2   d       3.107000   11.967589
 
Group    8 Size    5 Offset   32
   2   d       0.855000    1.251267
 
Group    9 Size    7 Offset   37
   2   f       1.917000    6.365818
 
Group   10 Size    4 Offset   44
   3   s   15330.000000    0.498804 -0.112918  0.000000  0.000000
   3   s    2299.000000    0.929707 -0.211781  0.000000  0.000000
   3   s     522.400000    1.576475 -0.361041  0.000000  0.000000
   3   s     147.300000    2.386068 -0.564236  0.000000  0.000000
   3   s      47.550000    2.977116 -0.754491  0.000000  0.000000
   3   s      16.760000    2.556946 -0.805621  0.000000  0.000000
   3   s       6.207000    0.981661 -0.492541  0.000000  0.000000
   3   s       1.752000    0.046374  0.174666  1.085327  0.000000
   3   s       0.688200   -0.004391  0.324949  0.000000  0.000000
   3   s       0.238400    0.000579  0.092100  0.000000  0.243159
 
Group   11 Size    9 Offset   48
   3   p      34.460000    1.895593  0.000000  0.000000
   3   p       7.749000    1.838088  0.000000  0.000000
   3   p       2.280000    1.239963  0.000000  0.000000
   3   p       0.715600    0.460662  0.938162  0.000000
   3   p       0.214000    0.069780  0.000000  0.207471
 
Group   12 Size    5 Offset   57
   3   d       2.314000    7.145709
 
Group   13 Size    5 Offset   62
   3   d       0.645000    0.764080
 
Group   14 Size    7 Offset   67
   3   f       1.428000    3.281655
=======================================
 
 Get_Ln:
 THRESHOLD                                                                      
                                                                                
                       
 Get_Ln:
  0.10000D-10                                                                   
                                                                                
                       
 Get_F:  9.999999999999999E-012
 Get_Ln:
 CUTOFF                                                                         
                                                                                
                       
 Get_Ln:
  0.10000D-13                                                                   
                                                                                
                       
 Get_F:  1.000000000000000E-014
 Get_Ln:
 SYMMETRY                                                                       
                                                                                
                       
 Get_Ln:
 X   Y                                                                          
                                                                                
                       
 Get_Ln:
 Basis Set                                                                      
                                                                                
                       
 Get_Ln:
 HE .MOLPRO. / INLINE                                                           
                                                                                
                       
 Get_Ln:
        2.0  2                                                                  
                                                                                
                       
 Get_F:   2.00000000000000     
 Get_I:                     2
 Get_Ln:
     6    3                                                                     
                                                                                
                       
 Get_I:                     6
 Get_I:                     3
 Get_Ln:
     2    2                                                                     
                                                                                
                       
 Get_I:                     2
 Get_I:                     2
 Get_Ln:
     1    1                                                                     
                                                                                
                       
 Get_I:                     1
 Get_I:                     1
 Get_Ln:
   1HE        0.000000000000,      0.000000000000,     -0.689840644063,         
                                                                                
                       
 Get_F:  0.000000000000000E+000  0.000000000000000E+000 -0.689840644063000     
 Get_Ln:
 CHARGE                                                                         
                                                                                
                       
 Get_Ln:
           2.00000000                                                           
                                                                                
                       
 Get_F:   2.00000000000000     
 Get_Ln:
 End of Basis                                                                   
                                                                                
                       
 Get_Ln:
 Basis Set                                                                      
                                                                                
                       
 Get_Ln:
 F  .MOLPRO. / INLINE                                                           
                                                                                
                       
 Get_Ln:
        9.0  3                                                                  
                                                                                
                       
 Get_F:   9.00000000000000     
 Get_I:                     3
 Get_Ln:
    10    4                                                                     
                                                                                
                       
 Get_I:                    10
 Get_I:                     4
 Get_Ln:
     5    3                                                                     
                                                                                
                       
 Get_I:                     5
 Get_I:                     3
 Get_Ln:
     2    2                                                                     
                                                                                
                       
 Get_I:                     2
 Get_I:                     2
 Get_Ln:
     1    1                                                                     
                                                                                
                       
 Get_I:                     1
 Get_I:                     1
 Get_Ln:
   2F         0.000000000000,      0.000000000000,      2.403640799241,         
                                                                                
                       
 Get_F:  0.000000000000000E+000  0.000000000000000E+000   2.40364079924100     
 Get_Ln:
 CHARGE                                                                         
                                                                                
                       
 Get_Ln:
           9.00000000                                                           
                                                                                
                       
 Get_F:   9.00000000000000     
 Get_Ln:
 End of Basis                                                                   
                                                                                
                       
 Get_Ln:
 Basis Set                                                                      
                                                                                
                       
 Get_Ln:
 O  .MOLPRO. / INLINE                                                           
                                                                                
                       
 Get_Ln:
        8.0  3                                                                  
                                                                                
                       
 Get_F:   8.00000000000000     
 Get_I:                     3
 Get_Ln:
    10    4                                                                     
                                                                                
                       
 Get_I:                    10
 Get_I:                     4
 Get_Ln:
     5    3                                                                     
                                                                                
                       
 Get_I:                     5
 Get_I:                     3
 Get_Ln:
     2    2                                                                     
                                                                                
                       
 Get_I:                     2
 Get_I:                     2
 Get_Ln:
     1    1                                                                     
                                                                                
                       
 Get_I:                     1
 Get_I:                     1
 Get_Ln:
   3O         0.000000000000,      0.000000000000,     -2.681611836025,         
                                                                                
                       
 Get_F:  0.000000000000000E+000  0.000000000000000E+000  -2.68161183602500     
 Get_Ln:
 CHARGE                                                                         
                                                                                
                       
 Get_Ln:
           8.00000000                                                           
                                                                                
                       
 Get_F:   8.00000000000000     
 Get_Ln:
 End of Basis                                                                   
                                                                                
                       
 Get_Ln:
 End of Input                                                                   
                                                                                
                       
               SEWARD will generate:
                  Multipole Moment integrals up to order  1
                  Kinetic Energy integrals
                  Nuclear Attraction integrals
                  One-Electron Hamiltonian integrals

                    --- Group Generators ---
                    Reflection in the yz-plane  
                    Reflection in the xz-plane  
 
                   Integrals are discarded if absolute value <: 0.10E-10
                   Integral cutoff threshold is set to       <: 0.10E-13
 
 
                    Character Table for C2v
 
                             E   s(yz) s(xz) C2(z)
                    a1       1     1     1     1  z
                    b1       1    -1     1    -1  x, xz, Ry
                    b2       1     1    -1    -1  y, yz, Rx
                    a2       1    -1    -1     1  xy, Rz, I
 
                    Unitary symmetry adaptation
 
 
 
 Basis set label:HE .MOLPRO.                                                                     
 
 Valence basis set:
 ==================
 Associated Effective Charge  2.000000 au
 Associated Actual Charge     2.000000 au
  Shell  nPrim  nBasis  Cartesian Spherical Contaminant
    s       6       6        X                  
    p       2       2        X                  
    d       1       1                 X         
 
 
 Basis set label:F  .MOLPRO.                                                                     
 
 Valence basis set:
 ==================
 Associated Effective Charge  9.000000 au
 Associated Actual Charge     9.000000 au
  Shell  nPrim  nBasis  Cartesian Spherical Contaminant
    s      10      10        X                  
    p       5       5        X                  
    d       2       2                 X         
    f       1       1                 X         
 
 
 Basis set label:O  .MOLPRO.                                                                     
 
 Valence basis set:
 ==================
 Associated Effective Charge  8.000000 au
 Associated Actual Charge     8.000000 au
  Shell  nPrim  nBasis  Cartesian Spherical Contaminant
    s      10      10        X                  
    p       5       5        X                  
    d       2       2                 X         
    f       1       1                 X         
 
                    ************************************************ 
                    **** Cartesian Coordinates / Bohr, Angstrom **** 
                    ************************************************ 
 
     Center  Label                x              y              z                     x              y              z
        1      1HE            0.000000       0.000000      -0.689841              0.000000       0.000000      -0.365048
 Put_Ln:
 HE 4 3 3.01603  4 4.00260 5 5.0123   6 6.01888 4                               
                                                                                
                       
 Get_I:                     4
 Get_I:                     3
 Get_F:   3.01603000000000     
 Get_I:                     4
 Get_F:   4.00260000000000     
 Get_I:                     5
 Get_F:   5.01230000000000     
 Get_I:                     6
 Get_F:   6.01888000000000     
 Get_I:                     4
        2      2F             0.000000       0.000000       2.403641              0.000000       0.000000       1.271952
 Put_Ln:
 F 4 17 17.002095 18 18.000937 19 18.998403 20 19.999981 19                     
                                                                                
                       
 Get_I:                     4
 Get_I:                    17
 Get_F:   17.0020950000000     
 Get_I:                    18
 Get_F:   18.0009370000000     
 Get_I:                    19
 Get_F:   18.9984030000000     
 Get_I:                    20
 Get_F:   19.9999810000000     
 Get_I:                    19
        3      3O             0.000000       0.000000      -2.681612              0.000000       0.000000      -1.419048
 Put_Ln:
 O 4 15 15.003065 16 15.994915 17 16.999131 18 17.999160 16                     
                                                                                
                       
 Get_I:                     4
 Get_I:                    15
 Get_F:   15.0030650000000     
 Get_I:                    16
 Get_F:   15.9949150000000     
 Get_I:                    17
 Get_F:   16.9991310000000     
 Get_I:                    18
 Get_F:   17.9991600000000     
 Get_I:                    16
 
                    *************************************** 
                    **** InterNuclear Distances / Bohr **** 
                    *************************************** 
 
 
             1 1HE           2 2F            3 3O  
    1 1HE    0.000000
    2 2F     3.093481        0.000000
    3 3O     1.991771        5.085253        0.000000
 
                    ******************************************* 
                    **** InterNuclear Distances / Angstrom **** 
                    ******************************************* 
 
 
             1 1HE           2 2F            3 3O  
    1 1HE    0.000000
    2 2F     1.637000        0.000000
    3 3O     1.054000        2.691000        0.000000
 Put_Ln:
 HE 4 3 3.01603  4 4.00260 5 5.0123   6 6.01888 4                               
                                                                                
                       
 Get_I:                     4
 Get_I:                     3
 Get_F:   3.01603000000000     
 Get_I:                     4
 Get_F:   4.00260000000000     
 Get_I:                     5
 Get_F:   5.01230000000000     
 Get_I:                     6
 Get_F:   6.01888000000000     
 Get_I:                     4
 Put_Ln:
 F 4 17 17.002095 18 18.000937 19 18.998403 20 19.999981 19                     
                                                                                
                       
 Get_I:                     4
 Get_I:                    17
 Get_F:   17.0020950000000     
 Get_I:                    18
 Get_F:   18.0009370000000     
 Get_I:                    19
 Get_F:   18.9984030000000     
 Get_I:                    20
 Get_F:   19.9999810000000     
 Get_I:                    19
 Put_Ln:
 O 4 15 15.003065 16 15.994915 17 16.999131 18 17.999160 16                     
                                                                                
                       
 Get_I:                     4
 Get_I:                    15
 Get_F:   15.0030650000000     
 Get_I:                    16
 Get_F:   15.9949150000000     
 Get_I:                    17
 Get_F:   16.9991310000000     
 Get_I:                    18
 Get_F:   17.9991600000000     
 Get_I:                    16
 
 
 
 
                    Nuclear Potential Energy                     28.01032674 au
 Get_Ln:
 THRESHOLD                                                                      
                                                                                
                       
 Get_Ln:
  0.10000D-10                                                                   
                                                                                
                       
 Get_F:  9.999999999999999E-012
 Get_Ln:
 CUTOFF                                                                         
                                                                                
                       
 Get_Ln:
  0.10000D-13                                                                   
                                                                                
                       
 Get_F:  1.000000000000000E-014
 Get_Ln:
 SYMMETRY                                                                       
                                                                                
                       
 Get_Ln:
 X   Y                                                                          
                                                                                
                       
 Get_Ln:
 Basis Set                                                                      
                                                                                
                       
 Get_Ln:
 HE .MOLPRO. / INLINE                                                           
                                                                                
                       
 Get_Ln:
        2.0  2                                                                  
                                                                                
                       
 Get_F:   2.00000000000000     
 Get_I:                     2
 Get_Ln:
     6    3                                                                     
                                                                                
                       
 Get_I:                     6
 Get_I:                     3
 Get_Ln:
     2    2                                                                     
                                                                                
                       
 Get_I:                     2
 Get_I:                     2
 Get_Ln:
     1    1                                                                     
                                                                                
                       
 Get_I:                     1
 Get_I:                     1
 Get_Ln:
   1HE        0.000000000000,      0.000000000000,     -0.689840644063,         
                                                                                
                       
 Get_F:  0.000000000000000E+000  0.000000000000000E+000 -0.689840644063000     
 Get_Ln:
 CHARGE                                                                         
                                                                                
                       
 Get_Ln:
           2.00000000                                                           
                                                                                
                       
 Get_F:   2.00000000000000     
 Get_Ln:
 End of Basis                                                                   
                                                                                
                       
 Get_Ln:
 Basis Set                                                                      
                                                                                
                       
 Get_Ln:
 F  .MOLPRO. / INLINE                                                           
                                                                                
                       
 Get_Ln:
        9.0  3                                                                  
                                                                                
                       
 Get_F:   9.00000000000000     
 Get_I:                     3
 Get_Ln:
    10    4                                                                     
                                                                                
                       
 Get_I:                    10
 Get_I:                     4
 Get_Ln:
     5    3                                                                     
                                                                                
                       
 Get_I:                     5
 Get_I:                     3
 Get_Ln:
     2    2                                                                     
                                                                                
                       
 Get_I:                     2
 Get_I:                     2
 Get_Ln:
     1    1                                                                     
                                                                                
                       
 Get_I:                     1
 Get_I:                     1
 Get_Ln:
   2F         0.000000000000,      0.000000000000,      2.403640799241,         
                                                                                
                       
 Get_F:  0.000000000000000E+000  0.000000000000000E+000   2.40364079924100     
 Get_Ln:
 CHARGE                                                                         
                                                                                
                       
 Get_Ln:
           9.00000000                                                           
                                                                                
                       
 Get_F:   9.00000000000000     
 Get_Ln:
 End of Basis                                                                   
                                                                                
                       
 Get_Ln:
 Basis Set                                                                      
                                                                                
                       
 Get_Ln:
 O  .MOLPRO. / INLINE                                                           
                                                                                
                       
 Get_Ln:
        8.0  3                                                                  
                                                                                
                       
 Get_F:   8.00000000000000     
 Get_I:                     3
 Get_Ln:
    10    4                                                                     
                                                                                
                       
 Get_I:                    10
 Get_I:                     4
 Get_Ln:
     5    3                                                                     
                                                                                
                       
 Get_I:                     5
 Get_I:                     3
 Get_Ln:
     2    2                                                                     
                                                                                
                       
 Get_I:                     2
 Get_I:                     2
 Get_Ln:
     1    1                                                                     
                                                                                
                       
 Get_I:                     1
 Get_I:                     1
 Get_Ln:
   3O         0.000000000000,      0.000000000000,     -2.681611836025,         
                                                                                
                       
 Get_F:  0.000000000000000E+000  0.000000000000000E+000  -2.68161183602500     
 Get_Ln:
 CHARGE                                                                         
                                                                                
                       
 Get_Ln:
           8.00000000                                                           
                                                                                
                       
 Get_F:   8.00000000000000     
 Get_Ln:
 End of Basis                                                                   
                                                                                
                       
 Get_Ln:
 End of Input                                                                   
                                                                                
                       
               SEWARD will generate:
                  Multipole Moment integrals up to order  1
                  Kinetic Energy integrals
                  Nuclear Attraction integrals
                  One-Electron Hamiltonian integrals
                  Two-Electron Repulsion integrals

                    --- Group Generators ---
                    Reflection in the yz-plane  
                    Reflection in the xz-plane  
 
                   Integrals are discarded if absolute value <: 0.10E-10
                   Integral cutoff threshold is set to       <: 0.10E-13
 
 
                    Character Table for C2v
 
                             E   s(yz) s(xz) C2(z)
                    a1       1     1     1     1  z
                    b1       1    -1     1    -1  x, xz, Ry
                    b2       1     1    -1    -1  y, yz, Rx
                    a2       1    -1    -1     1  xy, Rz, I
 
                    Unitary symmetry adaptation
 
 
 
 Basis set label:HE .MOLPRO.                                                                     
 
 Valence basis set:
 ==================
 Associated Effective Charge  2.000000 au
 Associated Actual Charge     2.000000 au
  Shell  nPrim  nBasis  Cartesian Spherical Contaminant
    s       6       3        X                  
    p       2       2        X                  
    d       1       1                 X         
 
 
 Basis set label:F  .MOLPRO.                                                                     
 
 Valence basis set:
 ==================
 Associated Effective Charge  9.000000 au
 Associated Actual Charge     9.000000 au
  Shell  nPrim  nBasis  Cartesian Spherical Contaminant
    s      10       4        X                  
    p       5       3        X                  
    d       2       2                 X         
    f       1       1                 X         
 
 
 Basis set label:O  .MOLPRO.                                                                     
 
 Valence basis set:
 ==================
 Associated Effective Charge  8.000000 au
 Associated Actual Charge     8.000000 au
  Shell  nPrim  nBasis  Cartesian Spherical Contaminant
    s      10       4        X                  
    p       5       3        X                  
    d       2       2                 X         
    f       1       1                 X         
 
                    ************************************************ 
                    **** Cartesian Coordinates / Bohr, Angstrom **** 
                    ************************************************ 
 
     Center  Label                x              y              z                     x              y              z
        1      1HE            0.000000       0.000000      -0.689841              0.000000       0.000000      -0.365048
 Put_Ln:
 HE 4 3 3.01603  4 4.00260 5 5.0123   6 6.01888 4                               
                                                                                
                       
 Get_I:                     4
 Get_I:                     3
 Get_F:   3.01603000000000     
 Get_I:                     4
 Get_F:   4.00260000000000     
 Get_I:                     5
 Get_F:   5.01230000000000     
 Get_I:                     6
 Get_F:   6.01888000000000     
 Get_I:                     4
        2      2F             0.000000       0.000000       2.403641              0.000000       0.000000       1.271952
 Put_Ln:
 F 4 17 17.002095 18 18.000937 19 18.998403 20 19.999981 19                     
                                                                                
                       
 Get_I:                     4
 Get_I:                    17
 Get_F:   17.0020950000000     
 Get_I:                    18
 Get_F:   18.0009370000000     
 Get_I:                    19
 Get_F:   18.9984030000000     
 Get_I:                    20
 Get_F:   19.9999810000000     
 Get_I:                    19
        3      3O             0.000000       0.000000      -2.681612              0.000000       0.000000      -1.419048
 Put_Ln:
 O 4 15 15.003065 16 15.994915 17 16.999131 18 17.999160 16                     
                                                                                
                       
 Get_I:                     4
 Get_I:                    15
 Get_F:   15.0030650000000     
 Get_I:                    16
 Get_F:   15.9949150000000     
 Get_I:                    17
 Get_F:   16.9991310000000     
 Get_I:                    18
 Get_F:   17.9991600000000     
 Get_I:                    16
 
                    *************************************** 
                    **** InterNuclear Distances / Bohr **** 
                    *************************************** 
 
 
             1 1HE           2 2F            3 3O  
    1 1HE    0.000000
    2 2F     3.093481        0.000000
    3 3O     1.991771        5.085253        0.000000
 
                    ******************************************* 
                    **** InterNuclear Distances / Angstrom **** 
                    ******************************************* 
 
 
             1 1HE           2 2F            3 3O  
    1 1HE    0.000000
    2 2F     1.637000        0.000000
    3 3O     1.054000        2.691000        0.000000
 Put_Ln:
 HE 4 3 3.01603  4 4.00260 5 5.0123   6 6.01888 4                               
                                                                                
                       
 Get_I:                     4
 Get_I:                     3
 Get_F:   3.01603000000000     
 Get_I:                     4
 Get_F:   4.00260000000000     
 Get_I:                     5
 Get_F:   5.01230000000000     
 Get_I:                     6
 Get_F:   6.01888000000000     
 Get_I:                     4
 Put_Ln:
 F 4 17 17.002095 18 18.000937 19 18.998403 20 19.999981 19                     
                                                                                
                       
 Get_I:                     4
 Get_I:                    17
 Get_F:   17.0020950000000     
 Get_I:                    18
 Get_F:   18.0009370000000     
 Get_I:                    19
 Get_F:   18.9984030000000     
 Get_I:                    20
 Get_F:   19.9999810000000     
 Get_I:                    19
 Put_Ln:
 O 4 15 15.003065 16 15.994915 17 16.999131 18 17.999160 16                     
                                                                                
                       
 Get_I:                     4
 Get_I:                    15
 Get_F:   15.0030650000000     
 Get_I:                    16
 Get_F:   15.9949150000000     
 Get_I:                    17
 Get_F:   16.9991310000000     
 Get_I:                    18
 Get_F:   17.9991600000000     
 Get_I:                    16
 PERMUTATION LIST FOR SYMMETRY 1
     1    2    3    4    5    6    7    8    9   10   11   12   13   14   15   17   16   18   19   20
    21   22   23   24   25   26   27   28   30   29   31   32   33
 PERMUTATION LIST FOR SYMMETRY 2
    34   35   36   37   38   39   40   41   42   43   44   45   46   47   48   49   50
 PERMUTATION LIST FOR SYMMETRY 3
    51   52   53   54   55   56   57   58   60   59   61   62   63   64   65   67   66
 PERMUTATION LIST FOR SYMMETRY 4
    68   69   70   71   72   73   74
 
 
 
 
                    Nuclear Potential Energy                     28.01032674 au
 AO integral compression algorithm  1   Integral accuracy      1.0D-11

     4.194 MB (compressed) written to integral file ( 41.2%)

     Node minimum: 4.194 MB, node maximum: 4.194 MB
 

 NUMBER OF SORTED TWO-ELECTRON INTEGRALS:    1039939.     BUFFER LENGTH:  32768
 NUMBER OF SEGMENTS:   1  SEGMENT LENGTH:    1039939      RECORD LENGTH: 524288

 Memory used in sort:       1.60 MW

 SORT1 READ    1288203. AND WROTE     761798. INTEGRALS IN    3 RECORDS. CPU TIME:     0.06 SEC, REAL TIME:     0.12 SEC
 SORT2 READ     761798. AND WROTE    1039939. INTEGRALS IN   16 RECORDS. CPU TIME:     0.09 SEC, REAL TIME:     0.12 SEC

 Node minimum:    1039939.  Node maximum:    1039939. integrals

     SORT1   UNPACK  AAAA    AABB    ABAB    ABCD    OUTBCK
     0.00    0.00    0.00    0.00    0.00    0.00    0.00
        0       0       0       0       0       0       0

 OPERATOR DM      FOR CENTER  0  COORDINATES:    0.000000    0.000000    0.000000


 **********************************************************************************************************************************
 DATASETS  * FILE   NREC   LENGTH (MB)   RECORD NAMES
              1      19        5.19       500      610      700      900      950      970     1000     1100     1400     1410   
                                          VAR    BASINP    GEOM    SYMINP    ZMAT    AOBASIS   BASIS      S        T        V 
                                         1200     1210     1080     1600      129      960     1650     1300     1700   
                                          H0       H01     AOSYM     SMH      P2S    ABASIS   MOLCAS    ERIS     OPER   
 
 PROGRAMS   *        TOTAL       INT
 CPU TIMES  *         0.84      0.75
 REAL TIME  *         1.60 SEC
 DISK USED  *        18.26 MB      
 **********************************************************************************************************************************

1PROGRAM * RHF-SCF (CLOSED SHELL)       Authors: W. Meyer, H.-J. Werner


 NUMBER OF ELECTRONS:      10+   10-    SPACE SYMMETRY=1    SPIN SYMMETRY=Singlet 
 CONVERGENCE THRESHOLDS:    1.00E-05 (Density)    1.00E-07 (Energy)
 MAX. NUMBER OF ITERATIONS:       60
 INTERPOLATION TYPE:            DIIS
 INTERPOLATION STEPS:              2 (START)      1 (STEP)
 LEVEL SHIFTS:                  0.00 (CLOSED)  0.00 (OPEN) 



 Orbital guess generated from atomic densities.  Occupancy:    7   2   2   0

 Molecular orbital dump at record        2100.2

 ITERATION    DDIFF          GRAD             ENERGY        2-EL.EN.            DIPOLE MOMENTS         DIIS
    1      0.000D+00      0.000D+00      -176.85297240    212.162656   0.000000   0.000000  -0.643437    0
    2      0.000D+00      0.271D-01      -176.94012695    204.665891   0.000000   0.000000  -0.896478    1
    3      0.366D-01      0.172D-01      -176.97370098    207.887529   0.000000   0.000000  -0.982465    2
    4      0.139D-01      0.183D-02      -176.97438481    207.828898   0.000000   0.000000  -0.986451    3
    5      0.191D-02      0.647D-03      -176.97452733    207.836017   0.000000   0.000000  -1.018271    4
    6      0.883D-03      0.266D-03      -176.97454981    207.858116   0.000000   0.000000  -1.027003    5
    7      0.403D-03      0.628D-04      -176.97455148    207.852978   0.000000   0.000000  -1.030790    6
    8      0.119D-03      0.134D-04      -176.97455156    207.853832   0.000000   0.000000  -1.031507    7
    9      0.319D-04      0.216D-05      -176.97455156    207.853843   0.000000   0.000000  -1.031553    6
   10      0.407D-05      0.494D-06      -176.97455156    207.853897   0.000000   0.000000  -1.031552    0
 
 Final occupancy:   6   2   2   0
 
 !RHF STATE 1.1 ENERGY               -176.974551559543
 Nuclear energy                        28.01032674
 One-electron energy                 -308.91182663
 Two-electron energy                  103.92694833
 Virial quotient                       -0.99860160
 !RHF STATE 1.1 DIPOLE MOMENT           0.00000000     0.00000000    -1.03155185
 Dipole moment /Debye                   0.00000000     0.00000000    -2.62177156


 **********************************************************************************************************************************
 DATASETS  * FILE   NREC   LENGTH (MB)   RECORD NAMES
              1      19        5.19       500      610      700      900      950      970     1000     1100     1400     1410   
                                          VAR    BASINP    GEOM    SYMINP    ZMAT    AOBASIS   BASIS      S        T        V 
[...]
     0.00000000,     0.00000000,     0.00000000,     0.00000006,     0.00000000,
     0.00007177,     0.00000000,     0.00000400,
    -0.01354976,    -0.02006868,    -0.01166204,    -0.00168390,    -0.04794977,
    -0.01452896,     0.00000000,     0.00000000,     0.00000000,     0.00000000,
     0.00000000,     0.00000000,     0.00000000,     0.00000000,     0.00000000,
     0.00000000,     0.00000000,     0.00000000,     1.00000000,     0.00000000,
    -0.00000461,    -0.00077668,     0.00000000,    -0.00201453,    -0.00237731,
    -0.00009510,    -0.00692939,     0.00000000,     0.00000000,    -0.00059028,
     0.00000000,    -0.00000249,     0.00000000,
     0.00000000,     0.00000000,     0.00000000,     0.00000000,     0.00000000,
     0.00000000,    -0.00040194,     0.00000000,     0.00000000,     0.00000000,
     0.00000000,     0.00000000,     0.00000000,     0.00000000,     0.00000000,
     0.00000000,     0.00000000,     0.00000000,     0.00000000,     1.00000000,
     0.00000000,     0.00000000,     0.00000000,     0.00000000,     0.00000000,
     0.00000000,     0.00000000,     0.00000000,     0.00000000,     0.00000000,
    -0.00000821,     0.00000000,    -0.00000003,
     0.03473902,     0.02910540,     0.06669323,    -0.00117522,    -0.07207440,
     0.01446387,     0.00000000,     0.00000114,     0.00006803,     0.00000406,
     0.00016106,    -0.00044743,    -0.00002505,    -0.00129671,     0.00000268,
     0.00000000,     0.00003102,     0.00000000,    -0.00000461,     0.00000000,
     1.00000000,     0.00000112,     0.55598433,     0.16289755,     0.00000000,
     0.00000000,     0.00000000,     0.00000000,     0.00000000,     0.00000000,
     0.00000000,     0.00000000,     0.00000000,
     0.35118520,     0.32297996,     0.50394527,    -0.09116926,    -0.37393760,
     0.10761639,     0.00000000,     0.00015411,     0.00665008,     0.00064727,
     0.01419087,    -0.01904155,    -0.00428383,    -0.05002840,     0.00043075,
     0.00000000,     0.00587995,     0.00000000,    -0.00077668,     0.00000000,
     0.00000112,     1.00000000,     0.66539655,     0.89637980,     0.00000000,
     0.00000000,     0.00000000,     0.00000000,     0.00000000,     0.00000000,
     0.00000000,     0.00000000,     0.00000000,
     0.13635488,     0.12433416,     0.23114936,    -0.02912402,    -0.26111121,
     0.10120304,     0.00000000,     0.00000175,     0.00027202,     0.00000000,
     0.00073577,    -0.00212104,    -0.00000107,    -0.00633741,     0.00000000,
     0.00000000,     0.00000739,     0.00000000,     0.00000000,     0.00000000,
     0.55598433,     0.66539655,     1.00000000,     0.52331684,     0.00000000,
     0.00000000,     0.00000000,     0.00000000,     0.00000000,     0.00000000,
     0.00000000,     0.00000000,     0.00000000,
     0.45457142,     0.41191085,     0.64084572,    -0.07852668,    -0.31851876,
     0.04439885,     0.00000000,     0.00039244,     0.01520335,     0.00170741,
     0.03121437,    -0.03777645,    -0.01105301,    -0.09511272,     0.00113416,
     0.00000000,     0.01468359,     0.00000000,    -0.00201453,     0.00000000,
     0.16289755,     0.89637980,     0.52331684,     1.00000000,     0.00000000,
     0.00000000,     0.00000000,     0.00000000,     0.00000000,     0.00000000,
     0.00000000,     0.00000000,     0.00000000,
     0.40461417,     0.44365434,     0.38455982,    -0.12854294,    -0.34071254,
     0.13245521,     0.00000000,     0.00094358,     0.02150140,     0.00389190,
     0.03997486,    -0.04369905,    -0.01678858,    -0.10285680,     0.00179128,
     0.00000000,     0.01808899,     0.00000000,    -0.00237731,     0.00000000,
     0.00000000,     0.00000000,     0.00000000,     0.00000000,     1.00000000,
     0.94202180,     0.73471064,     0.00000000,     0.00000000,     0.00000000,
     0.00000000,     0.00000000,     0.00000000,
     0.36546464,     0.41290778,     0.30668154,    -0.19727466,    -0.44543760,
     0.17098269,     0.00000000,     0.00002035,     0.00343325,     0.00000408,
     0.00900674,    -0.01508994,    -0.00060487,    -0.04421153,     0.00000859,
     0.00000000,     0.00187446,     0.00000000,    -0.00009510,     0.00000000,
     0.00000000,     0.00000000,     0.00000000,     0.00000000,     0.94202180,
     1.00000000,     0.65041393,     0.00000000,     0.00000000,     0.00000000,
     0.00000000,     0.00000000,     0.00000000,
     0.56662195,     0.58275827,     0.59841336,    -0.04583937,    -0.10451627,
    -0.01886716,     0.00000000,     0.00277367,     0.05859191,     0.01156547,
     0.10482810,    -0.10564658,    -0.04903178,    -0.23454748,     0.00531332,
     0.00000000,     0.05103721,     0.00000000,    -0.00692939,     0.00000000,
     0.00000000,     0.00000000,     0.00000000,     0.00000000,     0.73471064,
     0.65041393,     1.00000000,     0.00000000,     0.00000000,     0.00000000,
     0.00000000,     0.00000000,     0.00000000,
     0.07430814,     0.10355271,     0.02781153,    -0.08892496,    -0.15654320,
     0.19631082,     0.00000000,     0.00000218,     0.00033897,     0.00000000,
     0.00091636,    -0.00190190,    -0.00000275,    -0.00568003,     0.00000000,
     0.00000000,     0.00001960,     0.00000000,     0.00000000,     0.00000000,
     0.00000000,     0.00000000,     0.00000000,     0.00000000,     0.00000000,
     0.00000000,     0.00000000,     1.00000000,     0.00000000,     0.51163822,
     0.00000000,     0.00000000,     0.00000000,
     0.00000000,     0.00000000,     0.00000000,     0.00000000,     0.00000000,
     0.00000000,     0.01459158,     0.00000000,     0.00000000,     0.00000000,
     0.00000000,     0.00000000,     0.00000000,     0.00000000,     0.00000000,
     0.00000000,     0.00000000,     0.00000006,     0.00000000,     0.00000000,
     0.00000000,     0.00000000,     0.00000000,     0.00000000,     0.00000000,
     0.00000000,     0.00000000,     0.00000000,     1.00000000,     0.00000000,
     0.51163822,     0.00000000,     0.00000000,
     0.36450679,     0.41576931,     0.15076248,    -0.20630684,    -0.19001287,
     0.07045397,     0.00000000,     0.00003706,     0.00679843,     0.00004105,
     0.01702593,    -0.02275854,    -0.00265543,    -0.06409203,     0.00008184,
     0.00000000,     0.00690223,     0.00000000,    -0.00059028,     0.00000000,
     0.00000000,     0.00000000,     0.00000000,     0.00000000,     0.00000000,
     0.00000000,     0.00000000,     0.51163822,     0.00000000,     1.00000000,
     0.00000000,     0.00000000,     0.00000000,
     0.00000000,     0.00000000,     0.00000000,     0.00000000,     0.00000000,
     0.00000000,     0.08686103,     0.00000000,     0.00000000,     0.00000000,
     0.00000000,     0.00000000,     0.00000000,     0.00000000,     0.00000000,
     0.00000037,     0.00000000,     0.00007177,     0.00000000,    -0.00000821,
     0.00000000,     0.00000000,     0.00000000,     0.00000000,     0.00000000,
     0.00000000,     0.00000000,     0.00000000,     0.51163822,     0.00000000,
     1.00000000,     0.00000000,     0.00000000,
     0.12903446,     0.13310975,     0.01531551,    -0.22681972,    -0.08100121,
     0.18749327,     0.00000000,     0.00000592,     0.00095180,     0.00000002,
     0.00254527,    -0.00372212,    -0.00007815,    -0.01101012,     0.00000002,
     0.00000000,     0.00036300,     0.00000000,    -0.00000249,     0.00000000,
     0.00000000,     0.00000000,     0.00000000,     0.00000000,     0.00000000,
     0.00000000,     0.00000000,     0.00000000,     0.00000000,     0.00000000,
     0.00000000,     1.00000000,     0.00000000,
     0.00000000,     0.00000000,     0.00000000,     0.00000000,     0.00000000,
     0.00000000,     0.09914696,     0.00000000,     0.00000000,     0.00000000,
     0.00000000,     0.00000000,     0.00000000,     0.00000000,     0.00000000,
     0.00000000,     0.00000000,     0.00000400,     0.00000000,    -0.00000003,
     0.00000000,     0.00000000,     0.00000000,     0.00000000,     0.00000000,
     0.00000000,     0.00000000,     0.00000000,     0.00000000,     0.00000000,
     0.00000000,     0.00000000,     1.00000000,
     1.00000000,     0.57073831,     0.00000000,     0.00736672,     0.00078463,
     0.02087286,    -0.00000220,    -0.00467965,     0.00021139,     0.00000000,
     0.05495071,     0.05484297,     0.07816910,     0.01826921,     0.16075560,
     0.11790439,     0.00000000,
     0.57073831,     1.00000000,     0.00000000,     0.04625367,     0.01878802,
     0.10904926,    -0.00352724,    -0.05723580,     0.01587919,     0.00000000,
     0.24660683,     0.23192893,     0.32246694,     0.10716053,     0.43026539,
     0.21362933,     0.00000000,
     0.00000000,     0.00000000,     1.00000000,     0.01531727,     0.00589754,
     0.03712693,    -0.00019996,    -0.02589130,     0.00421272,     0.00000000,
    -0.10527258,    -0.13697531,    -0.06970545,    -0.10843384,    -0.24780807,
    -0.28604561,     0.00000000,
     0.00736672,     0.04625367,     0.01531727,     1.00000000,     0.93861578,
     0.72541428,     0.00000000,     0.00000000,     0.00000000,     0.00000000,
     0.00713125,     0.00164740,     0.01860067,     0.00031694,     0.00490860,
     0.00104791,     0.00000000,
     0.00078463,     0.01878802,     0.00589754,     0.93861578,     1.00000000,
     0.64084785,     0.00000000,     0.00000000,     0.00000000,     0.00000000,
     0.00208506,     0.00003063,     0.00615457,     0.00000015,     0.00026206,
     0.00000742,     0.00000000,
     0.02087286,     0.10904926,     0.03712693,     0.72541428,     0.64084785,
     1.00000000,     0.00000000,     0.00000000,     0.00000000,     0.00000000,
     0.01792382,     0.00487863,     0.04558022,     0.00094698,     0.01428433,
     0.00312099,     0.00000000,
    -0.00000220,    -0.00352724,    -0.00019996,     0.00000000,     0.00000000,
     0.00000000,     1.00000000,     0.50517544,     0.00000000,     0.00000000,
    -0.00037074,    -0.00000053,    -0.00110152,     0.00000000,    -0.00000997,
     0.00000000,     0.00000000,
    -0.00467965,    -0.05723580,    -0.02589130,     0.00000000,     0.00000000,
     0.00000000,     0.50517544,     1.00000000,     0.00000000,     0.00000000,
    -0.00442696,    -0.00017890,    -0.01290060,    -0.00000201,    -0.00129298,
    -0.00006499,     0.00000000,
     0.00021139,     0.01587919,     0.00421272,     0.00000000,     0.00000000,
     0.00000000,     0.00000000,     0.00000000,     1.00000000,     0.00000000,
     0.00082542,     0.00000973,     0.00243994,     0.00000000,     0.00011923,
     0.00000040,     0.00000000,
     0.00000000,     0.00000000,     0.00000000,     0.00000000,     0.00000000,
     0.00000000,     0.00000000,     0.00000000,     0.00000000,     1.00000000,
     0.00000000,     0.00000000,     0.00000000,     0.00000000,     0.00000000,
     0.00000000,     0.00000000,
     0.05495071,     0.24660683,    -0.10527258,     0.00713125,     0.00208506,
     0.01792382,    -0.00037074,    -0.00442696,     0.00082542,     0.00000000,
     1.00000000,     0.94202180,     0.73471064,     0.00000000,     0.00000000,
     0.00000000,     0.00000000,
     0.05484297,     0.23192893,    -0.13697531,     0.00164740,     0.00003063,
     0.00487863,    -0.00000053,    -0.00017890,     0.00000973,     0.00000000,
     0.94202180,     1.00000000,     0.65041393,     0.00000000,     0.00000000,
     0.00000000,     0.00000000,
     0.07816910,     0.32246694,    -0.06970545,     0.01860067,     0.00615457,
     0.04558022,    -0.00110152,    -0.01290060,     0.00243994,     0.00000000,
     0.73471064,     0.65041393,     1.00000000,     0.00000000,     0.00000000,
     0.00000000,     0.00000000,
     0.01826921,     0.10716053,    -0.10843384,     0.00031694,     0.00000015,
     0.00094698,     0.00000000,    -0.00000201,     0.00000000,     0.00000000,
     0.00000000,     0.00000000,     0.00000000,     1.00000000,     0.51163822,
     0.00000000,     0.00000000,
     0.16075560,     0.43026539,    -0.24780807,     0.00490860,     0.00026206,
     0.01428433,    -0.00000997,    -0.00129298,     0.00011923,     0.00000000,
     0.00000000,     0.00000000,     0.00000000,     0.51163822,     1.00000000,
     0.00000000,     0.00000000,
     0.11790439,     0.21362933,    -0.28604561,     0.00104791,     0.00000742,
     0.00312099,     0.00000000,    -0.00006499,     0.00000040,     0.00000000,
     0.00000000,     0.00000000,     0.00000000,     0.00000000,     0.00000000,
     1.00000000,     0.00000000,
     0.00000000,     0.00000000,     0.00000000,     0.00000000,     0.00000000,
     0.00000000,     0.00000000,     0.00000000,     0.00000000,     0.00000000,
     0.00000000,     0.00000000,     0.00000000,     0.00000000,     0.00000000,
     0.00000000,     1.00000000,
     1.00000000,     0.57073831,     0.00000000,     0.00736672,     0.00078463,
     0.02087286,    -0.00000220,    -0.00467965,     0.00021139,     0.00000000,
     0.05495071,     0.05484297,     0.07816910,     0.01826921,     0.16075560,
     0.11790439,     0.00000000,
     0.57073831,     1.00000000,     0.00000000,     0.04625367,     0.01878802,
     0.10904926,    -0.00352724,    -0.05723580,     0.01587919,     0.00000000,
     0.24660683,     0.23192893,     0.32246694,     0.10716053,     0.43026539,
     0.21362933,     0.00000000,
     0.00000000,     0.00000000,     1.00000000,     0.01531727,     0.00589754,
     0.03712693,    -0.00019996,    -0.02589130,     0.00421272,     0.00000000,
    -0.10527258,    -0.13697531,    -0.06970545,    -0.10843384,    -0.24780807,
    -0.28604561,     0.00000000,
     0.00736672,     0.04625367,     0.01531727,     1.00000000,     0.93861578,
     0.72541428,     0.00000000,     0.00000000,     0.00000000,     0.00000000,
     0.00713125,     0.00164740,     0.01860067,     0.00031694,     0.00490860,
     0.00104791,     0.00000000,
     0.00078463,     0.01878802,     0.00589754,     0.93861578,     1.00000000,
     0.64084785,     0.00000000,     0.00000000,     0.00000000,     0.00000000,
     0.00208506,     0.00003063,     0.00615457,     0.00000015,     0.00026206,
     0.00000742,     0.00000000,
     0.02087286,     0.10904926,     0.03712693,     0.72541428,     0.64084785,
     1.00000000,     0.00000000,     0.00000000,     0.00000000,     0.00000000,
     0.01792382,     0.00487863,     0.04558022,     0.00094698,     0.01428433,
     0.00312099,     0.00000000,
    -0.00000220,    -0.00352724,    -0.00019996,     0.00000000,     0.00000000,
     0.00000000,     1.00000000,     0.50517544,     0.00000000,     0.00000000,
    -0.00037074,    -0.00000053,    -0.00110152,     0.00000000,    -0.00000997,
     0.00000000,     0.00000000,
    -0.00467965,    -0.05723580,    -0.02589130,     0.00000000,     0.00000000,
     0.00000000,     0.50517544,     1.00000000,     0.00000000,     0.00000000,
    -0.00442696,    -0.00017890,    -0.01290060,    -0.00000201,    -0.00129298,
    -0.00006499,     0.00000000,
     0.00021139,     0.01587919,     0.00421272,     0.00000000,     0.00000000,
     0.00000000,     0.00000000,     0.00000000,     1.00000000,     0.00000000,
     0.00082542,     0.00000973,     0.00243994,     0.00000000,     0.00011923,
     0.00000040,     0.00000000,
     0.00000000,     0.00000000,     0.00000000,     0.00000000,     0.00000000,
     0.00000000,     0.00000000,     0.00000000,     0.00000000,     1.00000000,
     0.00000000,     0.00000000,     0.00000000,     0.00000000,     0.00000000,
     0.00000000,     0.00000000,
     0.05495071,     0.24660683,    -0.10527258,     0.00713125,     0.00208506,
     0.01792382,    -0.00037074,    -0.00442696,     0.00082542,     0.00000000,
     1.00000000,     0.94202180,     0.73471064,     0.00000000,     0.00000000,
     0.00000000,     0.00000000,
     0.05484297,     0.23192893,    -0.13697531,     0.00164740,     0.00003063,
     0.00487863,    -0.00000053,    -0.00017890,     0.00000973,     0.00000000,
     0.94202180,     1.00000000,     0.65041393,     0.00000000,     0.00000000,
     0.00000000,     0.00000000,
     0.07816910,     0.32246694,    -0.06970545,     0.01860067,     0.00615457,
     0.04558022,    -0.00110152,    -0.01290060,     0.00243994,     0.00000000,
     0.73471064,     0.65041393,     1.00000000,     0.00000000,     0.00000000,
     0.00000000,     0.00000000,
     0.01826921,     0.10716053,    -0.10843384,     0.00031694,     0.00000015,
     0.00094698,     0.00000000,    -0.00000201,     0.00000000,     0.00000000,
     0.00000000,     0.00000000,     0.00000000,     1.00000000,     0.51163822,
     0.00000000,     0.00000000,
     0.16075560,     0.43026539,    -0.24780807,     0.00490860,     0.00026206,
     0.01428433,    -0.00000997,    -0.00129298,     0.00011923,     0.00000000,
     0.00000000,     0.00000000,     0.00000000,     0.51163822,     1.00000000,
     0.00000000,     0.00000000,
     0.11790439,     0.21362933,    -0.28604561,     0.00104791,     0.00000742,
     0.00312099,     0.00000000,    -0.00006499,     0.00000040,     0.00000000,
     0.00000000,     0.00000000,     0.00000000,     0.00000000,     0.00000000,
     1.00000000,     0.00000000,
     0.00000000,     0.00000000,     0.00000000,     0.00000000,     0.00000000,
     0.00000000,     0.00000000,     0.00000000,     0.00000000,     0.00000000,
     0.00000000,     0.00000000,     0.00000000,     0.00000000,     0.00000000,
     0.00000000,     1.00000000,
     1.00000000,     0.00000907,     0.00248892,    -0.00040194,     0.01459158,
     0.08686103,     0.09914696,
     0.00000907,     1.00000000,     0.50517544,     0.00000000,     0.00000000,
     0.00000037,     0.00000000,
     0.00248892,     0.50517544,     1.00000000,     0.00000000,     0.00000006,
     0.00007177,     0.00000400,
    -0.00040194,     0.00000000,     0.00000000,     1.00000000,     0.00000000,
    -0.00000821,    -0.00000003,
     0.01459158,     0.00000000,     0.00000006,     0.00000000,     1.00000000,
     0.51163822,     0.00000000,
     0.08686103,     0.00000037,     0.00007177,    -0.00000821,     0.51163822,
     1.00000000,     0.00000000,
     0.09914696,     0.00000000,     0.00000400,    -0.00000003,     0.00000000,
     0.00000000,     1.00000000,


 **********************************************************************************************************************************
 DATASETS  * FILE   NREC   LENGTH (MB)   RECORD NAMES
              1      19        5.19       500      610      700      900      950      970     1000     1100     1400     1410   
                                          VAR    BASINP    GEOM    SYMINP    ZMAT    AOBASIS   BASIS      S        T        V 
                                         1200     1210     1080     1600      129      960     1650     1300     1700   
                                          H0       H01     AOSYM     SMH      P2S    ABASIS   MOLCAS    ERIS     OPER   
 
              2       3        0.31       700     1000     2100   
                                         GEOM     BASIS     RHF  
 
 PROGRAMS   *        TOTAL    MATROP        HF       INT
 CPU TIMES  *         1.01      0.02      0.15      0.75
 REAL TIME  *         1.82 SEC
 DISK USED  *        18.53 MB      
 **********************************************************************************************************************************

        HF-SCF  
   -176.97455156
 **********************************************************************************************************************************
 Variable memory released
tmp = /home/zouwl/pdir//usr/local/lib/molpro-mpp-Linux-x86_64-i8-2006.1/molprop_2006_1_i8_x86_64_tcgmsg.exe.p
 Creating: host=elrond.cm.utexas.edu, user=zouwl,
           file=/usr/local/lib/molpro-mpp-Linux-x86_64-i8-2006.1/molprop_2006_1_i8_x86_64_tcgmsg.exe, port=49788
